145
Lattice="16.906923 0.0 0.0 1.40891 10.822045 0.0 0.0 0.0 32.819648" Properties=species:S:1:pos:R:3:forces:R:3 energy=-912.2579793435735 pbc="T T F"
Pt       1.40891000       2.75137000      11.99994000      -0.02498900       0.54718800       0.95807500
Pt       2.81782000       5.13589000      12.51874000       0.00720700       0.09152600      -0.17048700
Pt       1.40892000       7.52041000      13.03744000       0.03267600      -0.02082300      -0.20485500
Pt       2.81788000       9.90490000      13.55640000      -0.03944900      -0.21995900      -0.14041100
Pt       2.81781000       1.46740000      14.07520000      -0.00643300      -0.44483100      -0.99286600
Pt       1.40892000       3.85189000      14.59379000      -0.01357500      -0.08879700       0.13029100
Pt       2.81787000       6.23643000      15.11259000      -0.03218300       0.20736000       0.03049900
Pt       1.40884000       8.62096000      15.63136000      -0.04245900      -0.06556100       0.35471800
Pt       1.41114000       0.18082000      16.14794000      -0.00312600      -0.07189800      -0.05634600
Pt       2.82345000       2.56995000      16.66623000       0.03086200      -0.00093700      -0.06384500
Pt       1.43294000       4.94021000      17.16362000      -0.07494000       0.00324800      -0.26951000
Pt       2.79302000       7.33609000      17.70795000       0.00659700       0.05201800       0.29165800
Pt       1.41937000       9.70200000      18.29302000       0.06669300      -0.05333700      -0.03985200
Pt       1.44140000       1.30519000      18.73967000       0.00608800       0.00223300       0.01250900
Pt       2.88543000       3.58739000      19.29495000       0.00473500      -0.00895800      -0.00777100
Pt       1.41471000       5.90733000      19.80668000       0.01928400       0.02014600      -0.01335900
Pt       2.82061000       8.24088000      20.41395000      -0.02054400       0.00211600       0.00882300
Pt       1.41665000      10.77788000      20.73456000       0.00191700      -0.00420800      -0.00539800
Pt       4.22673000       2.75136000      11.99994000       0.01309900       0.54405100       0.94938900
Pt       5.63563000       5.13590000      12.51870000      -0.03564400       0.08664000      -0.19828600
Pt       4.22674000       7.52042000      13.03750000      -0.01343600      -0.10432600      -0.16079100
Pt       5.63570000       9.90496000      13.55640000       0.02781300      -0.18195400      -0.12750400
Pt       5.63558000       1.46742000      14.07510000       0.01914600      -0.43716500      -0.93085600
Pt       4.22670000       3.85189000      14.59374000       0.02146100      -0.03085200       0.20293700
Pt       5.63564000       6.23646000      15.11264000       0.06603100       0.18312500       0.16313200
Pt       4.22670000       8.62107000      15.63136000       0.04945600      -0.02264000       0.30092500
Pt       4.22928000       0.18362000      16.14094000      -0.03670300      -0.10532400      -0.05672900
Pt       5.64115000       2.57315000      16.67408000       0.00091100       0.10562000       0.10514800
Pt       4.24068000       4.96958000      17.17286000       0.07576200      -0.26335700      -0.33230600
Pt       5.63760000       7.35383000      17.72552000      -0.09171800       0.22322000       0.22238700
Pt       4.21928000       9.69083000      18.26723000      -0.04892000       0.14458100      -0.04322800
Pt       4.24906000       1.29579000      18.71192000      -0.00848900       0.00280900      -0.00055900
Pt       5.67198000       3.59259000      19.44056000       0.01131600      -0.00598400      -0.01796600
Pt       4.25222000       5.93132000      19.78825000      -0.00730100       0.01481100       0.00301800
Pt       5.64805000       8.26404000      20.39351000       0.01011700      -0.01331900       0.00031200
Pt       4.23524000      10.76442000      20.71833000      -0.00240200       0.01019700       0.00511100
Pt       7.04456000       2.75138000      11.99994000       0.01715600       0.54836600       0.94231000
Pt       8.45344000       5.13591000      12.51870000       0.00615000       0.09604600      -0.19723600
Pt       7.04454000       7.52042000      13.03750000      -0.03611300      -0.06314300      -0.15214800
Pt       8.45347000       9.90497000      13.55650000       0.01840500      -0.25089400      -0.09010200
Pt       8.45343000       1.46738000      14.07496000      -0.03954900      -0.45672900      -0.94028200
Pt       7.04450000       3.85191000      14.59369000       0.01727000      -0.05972700       0.23216100
Pt       8.45345000       6.23652000      15.11264000       0.12220500       0.14372100       0.17420800
Pt       7.04450000       8.62090000      15.63152000      -0.07864700       0.00218100       0.22037500
Pt       7.04674000       0.18320000      16.15289000      -0.00178500      -0.01639100      -0.03860500
Pt       8.45856000       2.56800000      16.67585000       0.00309200      -0.01847800       0.05159500
Pt       7.04480000       4.94180000      17.16784000      -0.03266900      -0.12245600      -0.24123300
Pt       8.45420000       7.37865000      17.71964000       0.20930000      -0.13019700       0.16335200
Pt       7.05062000       9.72320000      18.26660000       0.08220900       0.04265600       0.02736300
Pt       7.06402000       1.32347000      18.76250000      -0.01432000      -0.00630500      -0.00570200
Pt       8.44142000       3.59307000      19.30419000      -0.01232800       0.01424200       0.01771100
Pt       7.04950000       5.96431000      19.71493000       0.02572800      -0.01556600       0.00760200
Pt       8.47773000       8.23489000      20.39657000      -0.00378400      -0.00288200       0.01374700
Pt       5.66254000       0.00253000      20.71338000       0.00347700      -0.00836700       0.01462400
Pt       9.86238000       2.75138000      11.99990000       0.02796200       0.54309000       0.95361200
Pt      11.27130000       5.13590000      12.51870000      -0.01222900       0.13991800      -0.13702400
Pt       9.86236000       7.52042000      13.03744000      -0.05395500      -0.04583000      -0.21085300
Pt      11.27130000       9.90497000      13.55640000       0.01674600      -0.29395000      -0.11487700
Pt      11.27130000       1.46734000      14.07499000      -0.01294100      -0.40700300      -0.92649000
Pt       9.86239000       3.85192000      14.59363000       0.03850500      -0.09910500       0.21541800
Pt      11.27130000       6.23655000      15.11259000      -0.00253500      -0.03117100       0.02205800
Pt       9.86222000       8.62082000      15.63160000      -0.11147500       0.10151900       0.26659900
Pt       9.86095000       0.19235000      16.14137000       0.02208500       0.04961200       0.00967000
Pt      11.27886000       2.57850000      16.70661000      -0.03352500      -0.00904900      -0.15882900
Pt       9.87657000       4.92123000      17.18406000      -0.21840900       0.18464700      -0.26996300
Pt      11.25220000       7.32696000      17.65488000       0.08669700       0.35434900       0.60904900
Pt       9.87752000       9.74802000      18.29153000       0.00639900      -0.21138700      -0.25875900
Pt       9.84374000       1.32708000      18.77146000       0.01400300      -0.00668500      -0.00429100
Pt      11.26161000       3.57645000      19.35978000      -0.00869000      -0.00651800      -0.02941800
Pt       9.85599000       5.90344000      19.84244000      -0.03694100      -0.01225700      -0.00485200
Pt      11.32141000       8.30524000      20.36110000       0.02868900      -0.00791100      -0.00309500
Pt       7.66899000       4.36699000      21.68409000      -0.00047600       0.09956200      -0.02628400
Pt      12.68020000       2.75138000      11.99992000      -0.01123700       0.54172600       0.92455100
Pt      14.08910000       5.13587000      12.51874000      -0.01610800       0.19571500      -0.08944400
Pt      12.68020000       7.52041000      13.03744000      -0.01339900      -0.02021200      -0.18411900
Pt      14.08910000       9.90492000      13.55624000      -0.03302300      -0.27500800      -0.08458700
Pt      14.08910000       1.46731000      14.07514000       0.00758400      -0.37974000      -0.99370900
Pt      12.68020000       3.85191000      14.59369000       0.01029300      -0.09724600       0.25055600
Pt      14.08910000       6.23650000      15.11254000      -0.06365900       0.03783800       0.09290100
Pt      12.68004000       8.62082000      15.63150000      -0.02610400       0.04496100       0.02070300
Pt      12.68836000       0.20259000      16.12927000       0.01443500      -0.00774300      -0.07862500
Pt      14.08866000       2.58389000      16.68812000       0.10450200       0.01890600       0.21107700
Pt      12.66896000       4.94024000      17.21617000       0.26224700      -0.18720300      -0.26268200
Pt      14.08912000       7.32507000      17.66186000      -0.18684500      -0.11826800      -0.24178600
Pt      12.71020000       9.73287000      18.19294000      -0.24954800       0.05594200       0.30414500
Pt      12.70424000       1.30727000      18.73435000      -0.00867200      -0.01397100       0.00648300
Pt      14.11976000       3.56835000      19.38040000       0.01450800       0.01561300       0.00296300
Pt      12.66736000       5.94925000      19.84076000       0.02642100       0.01522600       0.00649200
Pt      14.10299000       8.30607000      20.24379000      -0.02759400       0.02024600      -0.00329600
Pt       9.87963000      10.70186000      20.78591000       0.00141600       0.00100000       0.03989200
Pt      15.49800000       2.75136000      11.99994000      -0.00329400       0.53414200       0.93328400
Pt      16.90684000       5.13589000      12.51880000       0.01378400       0.11944900      -0.19423300
Pt      15.49800000       7.52041000      13.03744000       0.01713900      -0.03755700      -0.16220000
Pt      16.90696000       9.90490000      13.55624000       0.00715100      -0.26851000      -0.08082200
Pt      16.90684000       1.46746000      14.07520000       0.03805600      -0.45062000      -0.92851200
Pt      15.49806000       3.85189000      14.59374000       0.02369700      -0.13569000       0.16020600
Pt      16.90684000       6.23641000      15.11256000       0.01908800       0.17640100       0.10658300
Pt      15.49784000       8.62096000      15.63139000       0.18724800       0.08442500       0.10650400
Pt      15.51070000       0.19077000      16.14013000       0.00860000       0.01399400      -0.01098600
Pt      16.91364000       2.57934000      16.68389000       0.02193300       0.03669700       0.08313900
Pt      15.50908000       4.94687000      17.15338000      -0.13917000      -0.23129400       0.10956900
Pt      16.89210000       7.34355000      17.73466000       0.14818300       0.19094900      -0.05421500
Pt      15.53701000       9.75404000      18.22886000      -0.13961500      -0.03804500       0.00997400
Pt      15.54192000       1.29688000      18.74736000      -0.00190000      -0.00570200       0.00985600
Pt      16.96770000       3.58904000      19.34778000      -0.02509900       0.01795500      -0.00206300
Pt      15.47612000       5.96016000      19.75276000      -0.01654600      -0.02294300      -0.00256700
Pt      16.91764000       8.24500000      20.41515000       0.03130300      -0.00952000       0.00407000
Pt      15.50158000      10.66097000      20.75964000       0.00004600       0.02415300      -0.00348100
Pt      12.71287000      10.79530000      20.67749000      -0.00344800       0.01014600      -0.01208600
C       16.84559000       0.81073000      22.39249000       0.00267400       0.00890800       0.00907800
C        0.67172000       4.49268000      21.04156000      -0.00115700      -0.00555900       0.02305500
C        6.61862000       5.18154000      23.04384000       0.01374300      -0.00443900      -0.02152800
C       14.04764000       0.01313000      22.61921000      -0.00433600       0.00888700       0.01648600
C       11.63034000       8.15948000      22.19314000      -0.00696400      -0.02432700      -0.00879100
C        8.60662000       3.35411000      23.00122000      -0.01656000      -0.02723000      -0.00625100
C        5.75454000       0.92013000      22.33279000      -0.00248300      -0.00855900       0.00529100
C        8.57153000       7.91095000      22.21862000       0.00057900       0.00569700      -0.01213800
C        4.17030000       4.12443000      20.83963000      -0.00267200      -0.00205700       0.00220100
C       11.35303000       0.90742000      22.28982000      -0.00893800       0.01881400      -0.00119300
C       14.21917000       3.27899000      21.21090000      -0.01091200      -0.00721700      -0.01385600
C        2.77001000       7.66869000      22.18064000       0.01218700       0.00820800      -0.02108100
C       16.74581000       8.04158000      22.25485000       0.00202100      -0.01761300      -0.00178900
C       11.23038000       4.82413000      20.99593000      -0.00249400      -0.00276000       0.00749700
C        2.83780000       0.66436000      22.44122000       0.00468900       0.00625300       0.01044600
C        8.51793000       0.03224000      22.64852000      -0.00258100      -0.00236600      -0.02329700
C        5.63076000       8.42781000      22.24315000       0.00699900      -0.00957400      -0.00113900
C       14.17678000       6.50579000      21.30122000      -0.01242500       0.00851600      -0.03565400
O       16.77527000       1.35582000      23.41304000       0.00614300       0.00078200      -0.00300600
O        0.66204000       4.27986000      22.20695000      -0.01218700       0.01948700      -0.00213500
O        5.99643000       5.59751000      23.92110000      -0.02249100      -0.00813300       0.02372200
O       14.01130000       0.00069000      23.77836000       0.00300300       0.02335900      -0.00939200
O       11.81605000       8.08600000      23.33296000       0.00550200      -0.01827500       0.00571700
O        9.11474000       2.94549000      23.95337000      -0.01226700       0.00147000      -0.00483200
O        5.84817000       1.51475000      23.32474000      -0.00493700       0.00578800       0.01581000
O        8.64362000       7.70285000      23.35782000       0.01573900      -0.00092700       0.00055300
O        4.09858000       3.89803000      22.01591000      -0.00840200      -0.00030600       0.00849000
O       11.42723000       1.50153000      23.28234000      -0.00378200       0.00925500      -0.00310300
O       14.27963000       3.14430000      22.35741000       0.00062400       0.01489700       0.02059400
O        2.72762000       7.27421000      23.26899000       0.02929600       0.01634700       0.01765100
O       16.62667000       7.92690000      23.39993000       0.01862900      -0.03184700       0.00783200
O       11.25443000       4.61886000      22.17810000      -0.00324400       0.00986800       0.00604000
O        2.85081000       1.08012000      23.52319000       0.00091100      -0.00509800      -0.00834200
O        9.96332000      10.78307000      23.80790000      -0.00561900       0.02053700      -0.02329000
O        5.60904000       8.53155000      23.39947000       0.01814000      -0.00159600       0.00195400
O       14.20134000       6.26451000      22.47297000       0.00663600       0.00003400      -0.01255200
145
Lattice="16.906923 0.0 0.0 1.40891 10.822045 0.0 0.0 0.0 32.819648" Properties=species:S:1:pos:R:3:forces:R:3 energy=-912.0251362476145 pbc="T T F"
Pt       1.40891000       2.75137000      11.99996000      -0.00590300       0.54793100       0.96945500
Pt       2.81782000       5.13589000      12.51876000       0.01138900       0.09785700      -0.19133700
Pt       1.40892000       7.52040000      13.03746000       0.00351100      -0.07582100      -0.13280600
Pt       2.81787000       9.90491000      13.55640000      -0.01333900      -0.17710200      -0.15271600
Pt       2.81781000       1.46740000      14.07520000      -0.00346300      -0.46226300      -0.98399500
Pt       1.40892000       3.85189000      14.59382000       0.01151000      -0.06316000       0.15450900
Pt       2.81786000       6.23643000      15.11263000       0.01016900       0.19042200       0.02889700
Pt       1.40885000       8.62096000      15.63138000       0.01892300      -0.00975900       0.33334100
Pt       1.41113000       0.18081000      16.14796000      -0.00002100      -0.07536800      -0.08052500
Pt       2.82346000       2.56996000      16.66629000       0.03934100       0.00910200      -0.05666900
Pt       1.43295000       4.94021000      17.16371000      -0.11668500      -0.05939400      -0.24512000
Pt       2.79301000       7.33608000      17.70810000       0.00891500       0.03124700       0.17594200
Pt       1.41934000       9.70196000      18.29315000       0.06241400       0.07068500      -0.15300900
Pt       1.43348000       1.29673000      18.73593000       0.00956600       0.01448800      -0.00177200
Pt       2.90308000       3.57435000      19.31081000       0.02870200       0.00248600       0.01315900
Pt       1.41905000       5.88998000      19.79680000       0.03766500       0.04243800      -0.00417800
Pt       2.81961000       8.22188000      20.41049000       0.01367500      -0.03498600       0.07085600
Pt       1.43718000      10.71735000      20.76244000      -0.01005900       0.00608300      -0.00142400
Pt       4.22673000       2.75136000      11.99996000       0.01003800       0.53902700       0.95373700
Pt       5.63563000       5.13590000      12.51870000      -0.03414000       0.08808500      -0.20396300
Pt       4.22674000       7.52042000      13.03750000      -0.01257400      -0.07470900      -0.16381700
Pt       5.63570000       9.90495000      13.55640000       0.07695800      -0.23860000      -0.10901000
Pt       5.63559000       1.46741000      14.07510000       0.01395700      -0.43230100      -0.95083300
Pt       4.22670000       3.85190000      14.59376000      -0.00098600      -0.03243800       0.16537200
Pt       5.63564000       6.23646000      15.11266000       0.08511300       0.18579400       0.16957200
Pt       4.22670000       8.62106000      15.63138000      -0.01409300      -0.05185000       0.29223600
Pt       4.22928000       0.18363000      16.14096000      -0.03966900      -0.11286200      -0.07275900
Pt       5.64117000       2.57317000      16.67415000       0.03511100       0.08136900       0.02154700
Pt       4.24070000       4.96957000      17.17298000       0.05468000      -0.26701300      -0.35434600
Pt       5.63760000       7.35378000      17.72561000      -0.13730300       0.26062600       0.22418200
Pt       4.21922000       9.69082000      18.26729000      -0.06455900       0.15057500       0.00598900
Pt       4.26179000       1.29684000      18.70130000      -0.02345800       0.00924000      -0.00840800
Pt       5.69035000       3.59452000      19.40546000      -0.04140100       0.02254200       0.03614100
Pt       4.26623000       5.92789000      19.78583000      -0.02458500      -0.01933300      -0.01534700
Pt       5.61706000       8.28468000      20.40308000      -0.02801100      -0.00861900       0.00934900
Pt       4.23270000      10.81627000      20.71128000       0.00884600      -0.00852200      -0.00832400
Pt       7.04456000       2.75137000      11.99996000       0.00655300       0.54767700       0.93828400
Pt       8.45345000       5.13590000      12.51870000      -0.01728700       0.11212000      -0.17340600
Pt       7.04455000       7.52042000      13.03750000      -0.08372400      -0.04094200      -0.19966000
Pt       8.45347000       9.90496000      13.55650000       0.03956800      -0.26411500      -0.08898900
Pt       8.45343000       1.46738000      14.07498000      -0.04095000      -0.43696100      -0.93571200
Pt       7.04451000       3.85191000      14.59372000       0.00962000      -0.05634100       0.22529700
Pt       8.45345000       6.23651000      15.11266000       0.06987700       0.13708400       0.15549100
Pt       7.04450000       8.62091000      15.63151000       0.00261700      -0.04104100       0.31731500
Pt       7.04676000       0.18321000      16.15292000      -0.01439800       0.00328200      -0.00061900
Pt       8.45855000       2.56802000      16.67600000      -0.01120300      -0.05249700       0.10514400
Pt       7.04484000       4.94176000      17.16803000       0.00848700      -0.08139600      -0.28781300
Pt       8.45422000       7.37861000      17.71972000      -0.05356700       0.12090000       0.01024000
Pt       7.05058000       9.72313000      18.26660000       0.05300900       0.14555100       0.01118000
Pt       7.08199000       1.33429000      18.76879000      -0.01120900      -0.02691400      -0.00349400
Pt       8.45588000       3.61093000      19.31304000      -0.00826700       0.00693600      -0.00412000
Pt       7.03974000       5.98053000      19.71760000      -0.02253500       0.02962600      -0.04502800
Pt       8.41501000       8.26719000      20.40096000       0.00867600      -0.00037600      -0.00026300
Pt       5.65267000       0.02319000      20.71817000       0.00921500       0.00819100      -0.00816500
Pt       9.86238000       2.75137000      11.99990000       0.01382000       0.56012400       0.95572600
Pt      11.27130000       5.13590000      12.51870000       0.00813300       0.12688600      -0.15543200
Pt       9.86236000       7.52042000      13.03746000      -0.02592300      -0.05081500      -0.17589300
Pt      11.27130000       9.90496000      13.55640000      -0.01361500      -0.25527500      -0.10183200
Pt      11.27130000       1.46735000      14.07503000      -0.02120000      -0.40028300      -0.92501000
Pt       9.86238000       3.85192000      14.59369000       0.05022500      -0.05860200       0.32717200
Pt      11.27130000       6.23654000      15.11263000       0.00064900      -0.03694300      -0.07784600
Pt       9.86224000       8.62084000      15.63160000      -0.05096300       0.08067300       0.30442900
Pt       9.86095000       0.19237000      16.14145000       0.01844200       0.04309200      -0.01923600
Pt      11.27884000       2.57852000      16.70674000      -0.01972600      -0.04600300       0.12607400
Pt       9.87655000       4.92117000      17.18424000      -0.09867700      -0.08071300      -0.27068300
Pt      11.25220000       7.32695000      17.65499000       0.00349200       0.41676300       0.25612600
Pt       9.87753000       9.74793000      18.29159000       0.08542900      -0.22664100      -0.20783900
Pt       9.85738000       1.30865000      18.76794000      -0.00489300      -0.01918600       0.02704200
Pt      11.26895000       3.60729000      19.40704000       0.02562500       0.02276600       0.00950300
Pt       9.82004000       5.94204000      19.71853000       0.01550100      -0.01062500       0.02339100
Pt      11.24763000       8.24611000      20.35846000      -0.01235900      -0.02097800       0.03137700
Pt       7.78647000       4.50208000      21.69393000       0.04413300      -0.11824900       0.19371200
Pt      12.68020000       2.75137000      11.99991000      -0.00149900       0.55042600       0.96096700
Pt      14.08910000       5.13588000      12.51876000       0.00339000       0.14873700      -0.16540500
Pt      12.68020000       7.52041000      13.03746000       0.00886500      -0.03178300      -0.18569100
Pt      14.08910000       9.90492000      13.55626000      -0.03735900      -0.26809000      -0.12747700
Pt      14.08910000       1.46732000      14.07516000       0.02198400      -0.41273100      -0.99026700
Pt      12.68020000       3.85191000      14.59372000       0.01261100      -0.01852500       0.37682000
Pt      14.08910000       6.23649000      15.11256000      -0.06354900       0.02199700      -0.06722500
Pt      12.68006000       8.62083000      15.63150000      -0.01598300       0.00326500       0.03516000
Pt      12.68834000       0.20260000      16.12935000       0.02177800      -0.01063700      -0.03200700
Pt      14.08864000       2.58390000      16.68821000       0.12254000       0.06698900       0.12315800
Pt      12.66894000       4.94020000      17.21631000       0.09668100      -0.39127300      -0.80902900
Pt      14.08911000       7.32506000      17.66204000       0.15210800       0.52451100       0.30573100
Pt      12.71020000       9.73277000      18.19313000      -0.19325200      -0.09855600       0.42025700
Pt      12.69928000       1.32561000      18.73725000       0.00321700      -0.01491100       0.00262200
Pt      14.13842000       3.58902000      19.36838000       0.01818400       0.04281700      -0.00377800
Pt      12.65392000       5.99404000      19.66830000       0.01004700      -0.02119500       0.06068900
Pt      14.10246000       8.29025000      20.34105000       0.02692100       0.00231300       0.02768300
Pt       9.87468000      10.69298000      20.78235000      -0.00945300       0.00953000       0.02923000
Pt      15.49800000       2.75136000      11.99996000      -0.00617700       0.54383600       0.97262900
Pt      16.90686000       5.13589000      12.51880000      -0.00357800       0.10253500      -0.20219000
Pt      15.49800000       7.52040000      13.03746000       0.03408900      -0.00775000      -0.21808700
Pt      16.90694000       9.90490000      13.55626000      -0.04306600      -0.26690900      -0.08287900
Pt      16.90686000       1.46746000      14.07520000       0.02356700      -0.44871500      -0.94927600
Pt      15.49804000       3.85189000      14.59376000       0.03398600      -0.10552800       0.17531000
Pt      16.90686000       6.23641000      15.11257000      -0.00983900       0.17851400       0.14040800
Pt      15.49786000       8.62096000      15.63143000       0.08581900      -0.03287300       0.22558700
Pt      15.51070000       0.19076000      16.14019000       0.03274900       0.01386000       0.01917400
Pt      16.91366000       2.57936000      16.68392000       0.00276100       0.02995200       0.06805800
Pt      15.50909000       4.94689000      17.15349000       0.03189000      -0.17867900      -0.21243500
Pt      16.89210000       7.34356000      17.73484000       0.02759500       0.11495400       0.26903600
Pt      15.53698000       9.75396000      18.22904000      -0.24264500      -0.21015800       0.13299700
Pt      15.54788000       1.32683000      18.75472000      -0.00400600      -0.00248300       0.01748800
Pt      16.98739000       3.56399000      19.36926000      -0.00648100      -0.00013400      -0.02352800
Pt      15.48852000       5.93513000      19.77286000      -0.07735000      -0.05502900       0.01994600
Pt      16.91131000       8.23222000      20.40425000      -0.01976600      -0.00294600       0.02205600
Pt      15.52837000      10.79603000      20.69270000       0.01103700       0.01122200      -0.00251600
Pt      12.68808000      10.71312000      20.69002000      -0.00324200       0.00953200      -0.00296000
C       16.94598000       0.33174000      22.57822000      -0.00619700      -0.02255700      -0.07053400
C        0.87668000       4.39372000      21.03099000      -0.00798100       0.00228200      -0.11172000
C        6.70318000       5.30733000      23.04309000       0.12237700      -0.02554300      -0.09841700
C       14.12171000       0.80218000      22.36843000       0.00186200      -0.03793800      -0.16298500
C       11.24124000       7.51875000      22.07109000       0.01657800       0.10247400      -0.24045500
C        8.70395000       3.44504000      22.99574000      -0.11945600       0.04830500      -0.16764300
C        5.69878000       0.91348000      22.35743000       0.00554700      -0.06225900      -0.15281400
C        8.39610000       8.07503000      22.24259000       0.00188100       0.01384900      -0.06739900
C        4.23480000       4.12736000      20.84028000       0.01743200       0.04439600      -0.29763000
C       11.27391000       0.36332000      22.49472000       0.00431700      -0.04555000      -0.11431300
C       14.63142000       4.60283000      21.03315000      -0.02415200      -0.04580500       0.21579300
C        2.83687000       7.49279000      22.12886000       0.00154500       0.07400900      -0.20678600
C       16.93592000       8.17730000      22.26131000       0.00189000      -0.01878200      -0.17658700
C       11.51290000       3.52266000      21.23710000      -0.02059500       0.02044200      -0.09131800
C        2.80792000       0.90657000      22.34187000       0.00910000      -0.02211100      -0.05346700
C        8.42187000       0.06571000      22.63697000       0.00220000      -0.00246000      -0.04624300
C        5.52064000       8.51844000      22.24636000       0.00354100      -0.00483200      -0.11259100
C       14.08068000       7.98042000      22.17180000       0.00382600      -0.01194200      -0.07499500
O       16.94482000       0.51460000      23.72288000      -0.00157800      -0.00721200       0.07719000
O        0.92774000       4.14149000      22.18496000      -0.01005200      -0.02757600       0.14923700
O        6.05095000       5.69189000      23.91253000      -0.03402200       0.00671200       0.03575100
O       14.11923000       1.31263000      23.40750000       0.00845600       0.12063600       0.11374600
O       11.21079000       7.07287000      23.13924000      -0.00589400      -0.11393500       0.19575100
O        9.21422000       2.96583000      23.91326000       0.04685500      -0.04576900       0.08534000
O        5.75354000       1.47872000      23.36735000       0.01400900       0.10132500       0.13263000
O        8.39100000       7.98498000      23.39909000       0.00334700      -0.02156300       0.07400600
O        4.19475000       3.90434000      22.01460000      -0.01086300      -0.04723500       0.25183500
O       11.27114000       0.59987000      23.62995000       0.01676700      -0.00208900       0.13595100