143
Lattice="16.906923 0.0 0.0 1.40891 10.822045 0.0 0.0 0.0 32.819648" Properties=species:S:1:pos:R:3:forces:R:3 energy=-897.0199355129951 pbc="T T T"
Pt       1.40891000       2.75137000      12.00000000      -0.01890200       0.54974100       0.93615300
Pt       2.81782000       5.13589000      12.51880000       0.00140600       0.08820700      -0.17389700
Pt       1.40891000       7.52040000      13.03760000       0.00319900      -0.05893500      -0.20632800
Pt       2.81782000       9.90492000      13.55640000      -0.00669400      -0.20276600      -0.10033600
Pt       2.81782000       1.46740000      14.07520000      -0.01461200      -0.45863600      -0.98506600
Pt       1.40891000       3.85191000      14.59400000       0.00674300      -0.11602200       0.12956400
Pt       2.81782000       6.23643000      15.11280000      -0.00522900       0.13539700       0.09405300
Pt       1.40891000       8.62095000      15.63160000       0.03743100       0.00490000       0.32275600
Pt       1.41104000       0.18077000      16.14820000       0.03498500      -0.02391700      -0.00722500
Pt       2.82353000       2.57002000      16.66670000       0.04745800       0.10063200       0.23906100
Pt       1.43302000       4.94027000      17.16450000      -0.05052400       0.00475400      -0.10948300
Pt       2.79289000       7.33598000      17.70930000      -0.02681800       0.04543400       0.30546900
Pt       1.41910000       9.70159000      18.29430000      -0.06444300       0.16743500      -0.21903100
Pt       1.41748000       1.31390000      18.74370000       0.00651400      -0.02437600       0.04949400
Pt       2.87679000       3.57531000      19.36220000       0.05779700       0.00474400       0.02274400
Pt       1.35119000       5.93099000      19.83740000       0.03482100      -0.03562600      -0.02355600
Pt       2.74593000       8.23959000      20.41010000      -0.04494200      -0.06983800       0.06430400
Pt      18.29927000      10.71180000      20.77530000      -0.04746900      -0.09504800       0.13521600
Pt       4.22673000       2.75137000      12.00000000      -0.02141500       0.56175700       0.94422000
Pt       5.63564000       5.13589000      12.51880000       0.01038000       0.08104600      -0.16521300
Pt       4.22673000       7.52040000      13.03760000      -0.02109900      -0.07786500      -0.16509600
Pt       5.63564000       9.90492000      13.55640000       0.05459600      -0.24070900      -0.09056200
Pt       5.63564000       1.46740000      14.07520000       0.02228600      -0.41454000      -0.85801700
Pt       4.22673000       3.85191000      14.59400000       0.01901600      -0.07000300       0.14636500
Pt       5.63564000       6.23643000      15.11280000       0.08092400       0.17940200       0.10907900
Pt       4.22673000       8.62095000      15.63160000      -0.00730200      -0.04823800       0.22464000
Pt       4.22933000       0.18366000      16.14120000      -0.05220600      -0.05392200       0.04389000
Pt       5.64131000       2.57333000      16.67470000      -0.19907000      -0.13221900      -0.47595000
Pt       4.24083000       4.96945000      17.17390000      -0.03346700      -0.15627600      -0.33767600
Pt       5.63762000       7.35342000      17.72640000      -0.11508900      -0.05328400       0.08122000
Pt       4.21877000       9.69066000      18.26780000       0.02511700       0.01257800       0.20823300
Pt       4.24078000       1.27306000      18.74870000      -0.05710400       0.07251100      -0.05659800
Pt       5.64036000       3.64474000      19.20720000      -0.11744400       0.04761900       0.04498100
Pt       4.22760000       5.92761000      19.82480000       0.02328200       0.02839300      -0.01916500
Pt       5.59282000       8.25308000      20.40340000       0.02095700      -0.10291500      -0.07611000
Pt       4.17963000      10.78670000      20.71050000      -0.08279600      -0.01236200      -0.02258900
Pt       7.04455000       2.75137000      12.00000000       0.01604400       0.51808900       0.95280100
Pt       8.45346000       5.13589000      12.51880000      -0.01319500       0.12740000      -0.17060700
Pt       7.04455000       7.52040000      13.03760000      -0.08076500      -0.03904200      -0.16312200
Pt       8.45346000       9.90492000      13.55640000       0.02178500      -0.26942700      -0.24480000
Pt       8.45346000       1.46740000      14.07520000      -0.03326000      -0.45487900      -0.90816100
Pt       7.04455000       3.85191000      14.59400000       0.01977000      -0.01346700       0.12541400
Pt       8.45346000       6.23643000      15.11280000       0.00489900       0.06875400       0.22517800
Pt       7.04455000       8.62095000      15.63160000       0.06859200       0.02543000       0.23651500
Pt       7.04689000       0.18331000      16.15330000      -0.00938100      -0.27758400      -0.51809200
Pt       8.45849000       2.56818000      16.67700000       0.17421100       0.11996200      -0.04154200
Pt       7.04513000       4.94143000      17.16940000       0.17584000       0.22498300      -0.34439900
Pt       8.45434000       7.37827000      17.72050000      -0.06789700       0.10297500      -0.22209000
Pt       7.05027000       9.72262000      18.26660000      -0.15463800      -0.21156100       0.20466200
Pt       7.06342000       1.23636000      18.63520000      -0.05357200       0.19120800       0.03070900
Pt       8.46470000       3.62735000      19.34950000       0.09901500      -0.01097300      -0.04802100
Pt       7.03168000       5.96601000      19.79650000       0.04428600       0.01174800      -0.07063700
Pt       8.49228000       8.31314000      20.40840000       0.09767100      -0.04187500       0.02246000
Pt       6.95901000      10.64310000      20.84290000      -0.00517200       0.00663800       0.06126300
Pt       9.86237000       2.75137000      12.00000000       0.03956500       0.57215600       0.94363100
Pt      11.27130000       5.13589000      12.51880000      -0.00266600       0.15872200      -0.08498900
Pt       9.86237000       7.52040000      13.03760000      -0.04148400      -0.05688100      -0.14970700
Pt      11.27130000       9.90492000      13.55640000      -0.00216900      -0.28079600      -0.04370800
Pt      11.27130000       1.46740000      14.07520000      -0.01282100      -0.37491800      -0.90050700
Pt       9.86237000       3.85191000      14.59400000       0.05086100      -0.10961700       0.28122200
Pt      11.27130000       6.23643000      15.11280000       0.07789600      -0.02366600       0.13183400
Pt       9.86237000       8.62095000      15.63160000      -0.16241600       0.18527900       0.18903000
Pt       9.86100000       0.19249000      16.14200000       0.01040700       0.04281700      -0.03925100
Pt      11.27870000       2.57862000      16.70780000      -0.00985400       0.02619400       0.11012500
Pt       9.87641000       4.92076000      17.18580000      -0.14119200      -0.10959300      -0.15902600
Pt      11.25230000       7.32680000      17.65600000       0.28879200      -0.02262600       0.02481800
Pt       9.87764000       9.74731000      18.29200000       0.14173000      -0.28621000      -0.13655600
Pt       9.88873000       1.29270000      18.76620000      -0.03772800       0.01871700      -0.01595600
Pt      11.29040000       3.59743000      19.43600000       0.03109300       0.00221300       0.03485300
Pt       9.87628000       6.00967000      19.71490000      -0.02036400      -0.01957200      -0.01063800
Pt      11.31000000       8.33364000      20.29690000       0.04709300       0.00561700      -0.03617700
Pt       6.91406000       2.17013000      20.98720000      -0.16236400       0.07340400       0.94761100
Pt      12.68020000       2.75137000      12.00000000       0.01749000       0.53320800       0.84459900
Pt      14.08910000       5.13589000      12.51880000      -0.02310000       0.15879300      -0.08283500
Pt      12.68020000       7.52040000      13.03760000       0.01792400      -0.05268500      -0.18414400
Pt      14.08910000       9.90492000      13.55640000       0.00035900      -0.25326700      -0.11427600
Pt      14.08910000       1.46740000      14.07520000      -0.00374900      -0.42252900      -0.94955600
Pt      12.68020000       3.85191000      14.59400000       0.01050600      -0.16273400       0.22443000
Pt      14.08910000       6.23643000      15.11280000      -0.09249000       0.05552300      -0.03306900
Pt      12.68020000       8.62095000      15.63160000       0.06384500       0.05677500      -0.03307600
Pt      12.68830000       0.20263000      16.12990000      -0.00117100      -0.01465000      -0.05869100
Pt      14.08840000       2.58402000      16.68900000       0.11907300       0.12669100      -0.11867700
Pt      12.66880000       4.93993000      17.21750000      -0.04861100       0.06042100       0.09083200
Pt      14.08920000       7.32505000      17.66350000      -0.16971000       0.10158800      -0.06772100
Pt      12.71030000       9.73196000      18.19450000      -0.01700500       0.08509600       0.29438300
Pt      12.69950000       1.32217000      18.72880000      -0.07324900      -0.02301900       0.02421000
Pt      14.11310000       3.62351000      19.31660000       0.01999400       0.01800500      -0.00308500
Pt      12.67950000       6.00051000      19.92980000       0.01720800      -0.07183200      -0.04388500
Pt      14.16430000       8.38164000      20.31330000      -0.17229700       0.03279800       0.08017000
Pt       9.93193000      10.73280000      20.82750000       0.07322600      -0.01379400      -0.03131800
Pt      15.49800000       2.75137000      12.00000000      -0.02220200       0.56955900       0.98419500
Pt      16.90690000       5.13589000      12.51880000      -0.01344600       0.13666200      -0.10981800
Pt      15.49800000       7.52040000      13.03760000       0.02460900       0.01337600      -0.21196400
Pt      16.90690000       9.90492000      13.55640000      -0.00496600      -0.27205200      -0.09494500
Pt      16.90690000       1.46740000      14.07520000      -0.00823100      -0.46428100      -0.91866700
Pt      15.49800000       3.85191000      14.59400000      -0.00799000      -0.15858100       0.14209500
Pt      16.90690000       6.23643000      15.11280000       0.02629200       0.22193500       0.10709300
Pt      15.49800000       8.62095000      15.63160000       0.11276200       0.00775800       0.12401800
Pt      15.51060000       0.19075000      16.14060000       0.01656500      -0.03212900      -0.00524200
Pt      16.91370000       2.57948000      16.68420000       0.06632500       0.10809000       0.07222800
Pt      15.50900000       4.94700000      17.15440000       0.01892100      -0.15160600      -0.17568400
Pt      16.89210000       7.34365000      17.73640000       0.11333900      -0.08665900      -0.38025200
Pt      15.53670000       9.75326000      18.23060000      -0.07359900       0.25585400      -0.12527900
Pt      15.54880000       1.34128000      18.74280000       0.03068200       0.03988700       0.03161900
Pt      16.94610000       3.59221000      19.35780000       0.03113100      -0.05105000      -0.00570100
Pt      15.48030000       5.98419000      19.75810000      -0.04009700      -0.04487000       0.07020500
Pt      16.86550000       8.32530000      20.39470000       0.09490700       0.04740600       0.06700400
Pt      14.11440000       0.08550000      20.69970000      -0.00988100      -0.03245900       0.02415300
Pt      12.72580000      10.69320000      20.75010000       0.11063800      -0.05698900      -0.03087200
C       16.82909000       0.15316000      22.62510000       0.02175300       0.15816200       0.07224600
C        0.58578000       4.49209000      21.06440000      -0.06641000       0.02825900       0.00917000
C        6.62471000       2.91881000      22.68500000      -0.00808700       0.11400100       0.14538500
C       14.12120000       1.11090000      22.26370000       0.03536000       0.01726600       0.05464900
C       12.04230000       7.00919000      21.60930000      -0.01311100       0.02213800       0.08121300
C        6.87926000      10.69122000      22.69910000       0.02670800       0.10885100       0.00318700
C        8.50002000       5.05053000      20.93470000      -0.00611000      -0.10487400       0.01799100
C        3.66294000       4.42092000      21.03150000       0.01662600      -0.00505600      -0.04572600
C        8.57069000       0.33609000      22.63640000      -0.03416900       0.09417000       0.05833100
C       14.23350000       4.83679000      20.98070000       0.01104400      -0.06728400       0.02730700
C        2.51597000       7.86303000      22.21470000      -0.00061900       0.00747900      -0.00729500
C       15.47800000       8.10009000      21.82510000       0.04599000      -0.02960700       0.15853200
C       11.28460000       3.35017000      21.27750000      -0.06857400      -0.04809300       0.01440600
C        2.71896000       0.87807000      22.33290000      -0.02238100       0.07617800       0.07991700
C        8.75114000       8.02146000      22.22500000      -0.00549200      -0.08613500       0.07366400
C        5.60138000       7.74336000      22.18780000      -0.02613900       0.04441900       0.08752500
C       12.84890000      10.79340000      22.60490000       0.00397300       0.01200600       0.04087100
O       16.78539000       0.25745000      23.78000000      -0.00561500      -0.10001000      -0.12252600
O        0.55950000       4.27657000      22.22740000       0.00982700       0.04868700      -0.08837100
O        6.40930000       3.36982000      23.72970000      -0.00335000      -0.04832700      -0.01584200
O       14.13420000       1.75494000      23.22660000      -0.04060700      -0.03570400      -0.10709400
O       12.06750000       6.82960000      22.77640000      -0.03159400      -0.01264600      -0.04473600
O        6.82495000      10.68210000      23.85740000       0.01105400      -0.04391600       0.04925100
O        8.57925000       4.87957000      22.12140000       0.00014500       0.06943600       0.10982700
O        3.71620000       4.17582000      22.18880000      -0.01435800      -0.00058000      -0.02677800
O        8.62227000       0.55428000      23.77490000      -0.02120200      -0.03723100       0.05369800
O       14.29070000       4.61084000      22.15220000      -0.01895500       0.01146500      -0.04541900
O        2.37715000       7.62307000      23.33820000      -0.02196700      -0.00723000       0.02079000
O       15.43320000       7.92272000      22.99430000      -0.01533900       0.00021200      -0.10514000
O       11.27800000       3.24122000      22.42980000       0.01654100       0.01668800      -0.12286900
O        2.67487000       1.46220000      23.33270000       0.06118500       0.02191100      -0.01110900
O        8.92030000       7.83837000      23.35560000      -0.00146300       0.05421500      -0.03837900
O        5.60699000       7.41672000      23.29970000       0.01502100      -0.02039000      -0.03693000
O       12.93911000      10.78959000      23.76000000       0.04741300      -0.03937500       0.03409700
145
Lattice="16.906923 0.0 0.0 1.40891 10.822045 0.0 0.0 0.0 32.819648" Properties=species:S:1:pos:R:3:forces:R:3 energy=-912.1290209596722 pbc="T T F"
Pt       1.40891000       2.75137000      12.00000000      -0.00990900       0.54180000       0.95876500
Pt       2.81782000       5.13589000      12.51880000       0.00610700       0.10431000      -0.09026900
Pt       1.40891000       7.52040000      13.03760000      -0.03622400      -0.08235200      -0.16835600
Pt       2.81782000       9.90492000      13.55640000       0.07246000      -0.21072000      -0.05621600
Pt       2.81782000       1.46740000      14.07520000       0.00395300      -0.44147300      -0.93255300
Pt       1.40891000       3.85191000      14.59399000      -0.00325800      -0.08489800       0.08126900
Pt       2.81782000       6.23643000      15.11279000       0.00636500       0.16853100       0.01321700
Pt       1.40891000       8.62095000      15.63159000       0.00232700      -0.00700300       0.31972200
Pt       1.41104000       0.18077000      16.14819000      -0.01633100      -0.03620200      -0.08706700
Pt       2.82353000       2.57002000      16.66669000       0.09768300      -0.01319700      -0.11024900
Pt       1.43301000       4.94026000      17.16446000      -0.11887800      -0.01788700      -0.31460400
Pt       2.79288000       7.33598000      17.70923000       0.08837000       0.07013700       0.11631900
Pt       1.41910000       9.70162000      18.29424000      -0.04575300       0.12413900      -0.09855300
Pt       1.43261000       1.30348000      18.71537000      -0.00120500       0.00147300       0.00392000
Pt       2.87441000       3.60945000      19.26199000      -0.00673300       0.00574400       0.00164400
Pt       1.39514000       5.95753000      19.76545000      -0.00549600       0.00598600       0.00125200
Pt       2.75728000       8.35396000      20.49954000       0.01301700      -0.00042600      -0.00649900
Pt      16.87963000       0.06373000      20.73121000       0.00306200      -0.00221500       0.00002900
Pt       4.22673000       2.75137000      12.00000000       0.00721900       0.52931200       0.86743700
Pt       5.63564000       5.13589000      12.51880000      -0.00690500       0.10124200      -0.10826500
Pt       4.22673000       7.52040000      13.03760000       0.00759900      -0.05368200      -0.20514800
Pt       5.63564000       9.90492000      13.55640000      -0.00118300      -0.20920000      -0.12648500
Pt       5.63564000       1.46740000      14.07520000       0.01840600      -0.45311600      -0.88823600
Pt       4.22673000       3.85191000      14.59399000       0.00744700      -0.12894300       0.10100800
Pt       5.63564000       6.23643000      15.11279000       0.09899900       0.08988400       0.21600700
Pt       4.22672000       8.62095000      15.63159000       0.06562500      -0.07230500       0.29881000
Pt       4.22933000       0.18366000      16.14118000       0.01062700      -0.04538000       0.02189000
Pt       5.64130000       2.57333000      16.67468000      -0.00562700       0.05059300       0.22429200
Pt       4.24083000       4.96945000      17.17386000       0.18277700      -0.06112200       0.04878400
Pt       5.63760000       7.35343000      17.72632000      -0.15689900      -0.07677100      -0.40700300
Pt       4.21877000       9.69069000      18.26775000       0.01582000       0.13383800       0.18088300
Pt       4.24755000       1.27332000      18.74663000      -0.00566800       0.00125100      -0.00305000
Pt       5.62935000       3.63956000      19.43592000      -0.00880500       0.00534200      -0.00535500
Pt       4.18479000       5.98950000      19.86955000       0.00244000      -0.00315400       0.00043800
Pt       5.57055000       8.31172000      20.44511000       0.00914200      -0.01226400      -0.00849900
Pt       4.18749000      10.80664000      20.73529000       0.01038800       0.00350700       0.01065800
Pt       7.04455000       2.75137000      12.00000000       0.02025300       0.51946200       0.84486900
Pt       8.45346000       5.13589000      12.51880000      -0.01867100       0.10654900      -0.08544000
Pt       7.04455000       7.52040000      13.03760000      -0.09273400      -0.03865200      -0.14764100
Pt       8.45346000       9.90492000      13.55640000       0.04901100      -0.24233500      -0.17100300
Pt       8.45346000       1.46740000      14.07520000      -0.03496200      -0.39240500      -0.74806000
Pt       7.04455000       3.85191000      14.59399000       0.02915400      -0.12488900       0.07349500
Pt       8.45346000       6.23643000      15.11279000       0.03621900       0.08372300       0.15588300
Pt       7.04455000       8.62095000      15.63158000      -0.01832500       0.08217300       0.18457700
Pt       7.04688000       0.18331000      16.15328000      -0.03021900       0.05545700       0.16117500
Pt       8.45849000       2.56818000      16.67697000      -0.04006000      -0.13986800      -0.12749800
Pt       7.04512000       4.94143000      17.16936000      -0.11004200       0.20759300       0.15088400
Pt       8.45432000       7.37829000      17.72042000       0.22527300      -0.30222300      -0.24723900
Pt       7.05026000       9.72267000      18.26654000      -0.15284400       0.10715900      -0.04036800
Pt       7.03234000       1.29086000      18.79359000       0.00283200      -0.00291400      -0.02758600
Pt       8.40661000       3.64892000      19.25543000       0.01153700       0.01754700       0.00241200
Pt       7.01957000       5.99399000      19.79494000       0.01254400      -0.00886500       0.00431700
Pt       8.43160000       8.36706000      20.40846000       0.00569600      -0.01158900       0.00629700
Pt       6.95720000      10.71932000      20.87278000       0.00769400      -0.01665400      -0.00937600
Pt       9.86237000       2.75137000      12.00000000       0.02341500       0.49912900       0.80030300
Pt      11.27130000       5.13589000      12.51879000       0.01017200       0.14105100      -0.08225600
Pt       9.86237000       7.52040000      13.03760000      -0.00833900      -0.00807600      -0.15607300
Pt      11.27130000       9.90492000      13.55640000      -0.02565300      -0.26121600      -0.04647400
Pt      11.27130000       1.46740000      14.07520000      -0.03902600      -0.35332200      -0.88047100
Pt       9.86237000       3.85191000      14.59400000       0.07966400      -0.13197600       0.12515600
Pt      11.27130000       6.23643000      15.11279000       0.01469000      -0.10884800       0.08084000
Pt       9.86237000       8.62095000      15.63158000      -0.08473100       0.06690200       0.17641500
Pt       9.86100000       0.19249000      16.14198000       0.04261600       0.02816700      -0.02696700
Pt      11.27870000       2.57861000      16.70778000      -0.09452600      -0.04804800       0.02291200
Pt       9.87640000       4.92076000      17.18574000      -0.17481500       0.26406800       0.40754200
Pt      11.25230000       7.32682000      17.65591000      -0.16238100       0.18329900       0.28558900
Pt       9.87764000       9.74736000      18.29191000      -0.04883700      -0.19390600      -0.47776400
Pt       9.84801000       1.29256000      18.77465000       0.00703900       0.00707900       0.00623600
Pt      11.28021000       3.58223000      19.38089000       0.00981500       0.00216400       0.02221100
Pt       9.80247000       5.94877000      19.85072000       0.02013600      -0.00408100       0.02988400
Pt      11.23083000       8.36116000      20.39147000       0.00332900       0.00218500       0.00758100
Pt       7.07400000       2.31379000      21.36172000       0.14330700       0.11116700       0.00313600
Pt      12.68020000       2.75137000      12.00000000      -0.01901800       0.51506300       0.83769400
Pt      14.08910000       5.13589000      12.51880000      -0.00444100       0.14860600      -0.04054900
Pt      12.68020000       7.52040000      13.03759000      -0.00503900      -0.05125200      -0.21611100
Pt      14.08910000       9.90492000      13.55640000       0.01757100      -0.25716000      -0.13056700
Pt      14.08910000       1.46740000      14.07520000       0.00929700      -0.38978800      -0.94512800
Pt      12.68020000       3.85191000      14.59399000      -0.01030600      -0.15305600       0.25387800
Pt      14.08910000       6.23643000      15.11279000      -0.06861800      -0.00518300      -0.00679400
Pt      12.68020000       8.62095000      15.63159000      -0.03632600       0.04466200      -0.03445600
Pt      12.68830000       0.20264000      16.12989000       0.00384900       0.04415800      -0.02375800
Pt      14.08840000       2.58402000      16.68898000       0.01628500       0.01825200       0.07824300
Pt      12.66880000       4.93994000      17.21744000       0.01850700      -0.05065300      -0.22589200
Pt      14.08920000       7.32505000      17.66342000       0.18515000       0.15764300       0.01055700
Pt      12.71031000       9.73197000      18.19442000      -0.04607100       0.02405300       0.39893600
Pt      12.70374000       1.28311000      18.76572000       0.00255400       0.00675400       0.00432400
Pt      14.12262000       3.60338000      19.30224000       0.00947200      -0.01307800      -0.00376800
Pt      12.61876000       6.03371000      19.74501000       0.00926500       0.00459700       0.00361700
Pt      14.07286000       8.28352000      20.40658000       0.00401400      -0.00946700      -0.01308900
Pt       9.87107000      10.75436000      20.87416000       0.00548400       0.01406600       0.00354900
Pt      15.49800000       2.75137000      12.00000000      -0.01780000       0.54129600       0.88616600
Pt      16.90690000       5.13589000      12.51880000      -0.00466100       0.12094000      -0.12883000
Pt      15.49800000       7.52040000      13.03760000       0.04278300       0.01769600      -0.23194500
Pt      16.90690000       9.90492000      13.55639000      -0.03561900      -0.28088100      -0.04692100
Pt      16.90690000       1.46740000      14.07520000      -0.01556300      -0.47234300      -0.90590000
Pt      15.49800000       3.85191000      14.59399000       0.02110500      -0.19354400       0.06337900
Pt      16.90690000       6.23643000      15.11279000      -0.02163600       0.16372700       0.11717900
Pt      15.49800000       8.62096000      15.63159000       0.08378200      -0.03381000       0.21244600
Pt      15.51060000       0.19076000      16.14059000       0.06492500       0.03449300      -0.02694800
Pt      16.91370000       2.57947000      16.68419000      -0.02647400       0.10623300      -0.00166500
Pt      15.50900000       4.94699000      17.15436000       0.06130600       0.11165700       0.15852900
Pt      16.89211000       7.34365000      17.73632000      -0.24067100      -0.04914200      -0.10833600
Pt      15.53671000       9.75332000      18.23052000      -0.24567600      -0.18464500       0.14879400
Pt      15.50218000       1.32117000      18.74984000       0.00187000      -0.00606900      -0.00660300
Pt      16.97677000       3.58820000      19.34323000       0.00367700      -0.00168800       0.00563300
Pt      15.45358000       5.92088000      19.90561000       0.00009600       0.00107100      -0.00541400
Pt      16.91923000       8.28801000      20.47646000      -0.00463900       0.00297500      -0.00100300
Pt      15.49369000      10.67449000      20.76846000       0.00737900      -0.00460700       0.01620300
Pt      12.68971000      10.71964000      20.72279000       0.01255900      -0.01321200       0.02631700
C       16.74472000       1.06722000      22.30949000      -0.00132500       0.05097500       0.05007900
C        0.83568000       4.46941000      21.00366000       0.00767500       0.01115700       0.00930300
C        6.73617000       3.44754000      22.83751000       0.03468400      -0.11086600      -0.21691800
C       15.53013000      10.72743000      22.63820000      -0.00452400       0.03565700      -0.23369700
C       12.50829000       7.14410000      21.50685000       0.00105000       0.08449300      -0.23081900
C        8.18505000       1.04749000      22.52970000       0.00289300       0.01920000      -0.02805800
C        6.85986000      10.45031000      22.71642000       0.02012400       0.03477200      -0.03818200
C        9.66546000       5.58888000      21.68252000       0.04566000       0.04360900      -0.28364500
C        4.12207000       4.08060000      20.84491000       0.00054800      -0.02295300       0.08259700
C       11.23499000       0.27447000      22.55412000       0.01454000      -0.05390600      -0.15118100
C       14.63129000       4.37339000      21.04788000      -0.00406700       0.02597100      -0.03470800
C        4.11566000       7.23858000      21.62260000       0.00076800       0.05404900      -0.21894100
C        1.37332000       8.39410000      21.99207000       0.00564400       0.02184700       0.04502800
C       11.46218000       3.30137000      21.20327000       0.00336700      -0.01063400      -0.07469500
C        2.76590000       0.78335000      22.42441000       0.01081000      -0.09040100      -0.17026300
C        9.85287000       8.86923000      21.92329000      -0.00260500       0.01813500      -0.08412400
C        7.05285000       7.21370000      21.51141000       0.01187500       0.01682300       0.01600600
C       15.48704000       7.31106000      21.63095000       0.01842900       0.07330900      -0.21756500
O       16.62004000       1.68270000      23.28109000       0.02423400      -0.02981000      -0.06314900
O        0.89496000       4.24180000      22.16196000      -0.00265700      -0.00454400       0.00338800
O        6.56683000       4.06331000      23.79560000      -0.00675700       0.06802900       0.09627600
O       15.57715000      10.62531000      23.78848000       0.01405200       0.01007000       0.22019200
O       12.52015000       6.82971000      22.65231000       0.00579700      -0.06810100       0.22793900
O        8.43183000       0.98743000      23.68280000      -0.00221600       0.03298900      -0.02725700
O        6.79416000      10.21261000      23.84580000       0.01522600       0.01032500       0.07216700
O        9.56954000       5.37077000      22.80941000      -0.01184900      -0.05874400       0.25400000
O        4.01815000       3.83133000      22.01006000       0.00706000       0.01648400      -0.08155600
O       11.22643000       0.46196000      23.69422000       0.00235300      -0.00392200       0.14280200
O       14.60211000       4.12676000      22.20078000      -0.00675800       0.00861200       0.03325300
O        4.13620000       6.94321000      22.77005000       0.02385200      -0.06536100       0.21599100